LAMMPS Description

3 atoms
0 bonds
0 angles
0 dihedrals
0  impropers

2 atom types
0 bond types
0 angle types
0 dihedral types
0  improper types

 -10 10 xlo xhi
 -10 10 ylo yhi
 -10 10 zlo zhi

Masses

1	207.200000
2	126.900000


Atoms

1	1	1	0.0	0.0	0.0	0.0
2	1	2	0.0	0.0	2.7	0.0
3	1	2	0.0	3.8	0.0	0.0

