 Entering Gaussian System, Link 0=g09
 Initial command:
 /usr/local/gaussian/g09d01/g09/l1.exe "/tmp/icse_757331.1/Gau-37045.inp" -scrdir="/tmp/icse_757331.1/"
 Entering Link 1 = /usr/local/gaussian/g09d01/g09/l1.exe PID=     37046.
  
 Copyright (c) 1988,1990,1992,1993,1995,1998,2003,2009,2013,
            Gaussian, Inc.  All Rights Reserved.
  
 This is part of the Gaussian(R) 09 program.  It is based on
 the Gaussian(R) 03 system (copyright 2003, Gaussian, Inc.),
 the Gaussian(R) 98 system (copyright 1998, Gaussian, Inc.),
 the Gaussian(R) 94 system (copyright 1995, Gaussian, Inc.),
 the Gaussian 92(TM) system (copyright 1992, Gaussian, Inc.),
 the Gaussian 90(TM) system (copyright 1990, Gaussian, Inc.),
 the Gaussian 88(TM) system (copyright 1988, Gaussian, Inc.),
 the Gaussian 86(TM) system (copyright 1986, Carnegie Mellon
 University), and the Gaussian 82(TM) system (copyright 1983,
 Carnegie Mellon University). Gaussian is a federally registered
 trademark of Gaussian, Inc.
  
 This software contains proprietary and confidential information,
 including trade secrets, belonging to Gaussian, Inc.
  
 This software is provided under written license and may be
 used, copied, transmitted, or stored only in accord with that
 written license.
  
 The following legend is applicable only to US Government
 contracts under FAR:
  
                    RESTRICTED RIGHTS LEGEND
  
 Use, reproduction and disclosure by the US Government is
 subject to restrictions as set forth in subparagraphs (a)
 and (c) of the Commercial Computer Software - Restricted
 Rights clause in FAR 52.227-19.
  
 Gaussian, Inc.
 340 Quinnipiac St., Bldg. 40, Wallingford CT 06492
  
  
 ---------------------------------------------------------------
 Warning -- This program may not be used in any manner that
 competes with the business of Gaussian, Inc. or will provide
 assistance to any competitor of Gaussian, Inc.  The licensee
 of this program is prohibited from giving any competitor of
 Gaussian, Inc. access to this program.  By using this program,
 the user acknowledges that Gaussian, Inc. is engaged in the
 business of creating and licensing software in the field of
 computational chemistry and represents and warrants to the
 licensee that it is not a competitor of Gaussian, Inc. and that
 it will not use this program in any manner prohibited above.
 ---------------------------------------------------------------
  

 Cite this work as:
 Gaussian 09, Revision D.01,
 M. J. Frisch, G. W. Trucks, H. B. Schlegel, G. E. Scuseria, 
 M. A. Robb, J. R. Cheeseman, G. Scalmani, V. Barone, B. Mennucci, 
 G. A. Petersson, H. Nakatsuji, M. Caricato, X. Li, H. P. Hratchian, 
 A. F. Izmaylov, J. Bloino, G. Zheng, J. L. Sonnenberg, M. Hada, 
 M. Ehara, K. Toyota, R. Fukuda, J. Hasegawa, M. Ishida, T. Nakajima, 
 Y. Honda, O. Kitao, H. Nakai, T. Vreven, J. A. Montgomery, Jr., 
 J. E. Peralta, F. Ogliaro, M. Bearpark, J. J. Heyd, E. Brothers, 
 K. N. Kudin, V. N. Staroverov, T. Keith, R. Kobayashi, J. Normand, 
 K. Raghavachari, A. Rendell, J. C. Burant, S. S. Iyengar, J. Tomasi, 
 M. Cossi, N. Rega, J. M. Millam, M. Klene, J. E. Knox, J. B. Cross, 
 V. Bakken, C. Adamo, J. Jaramillo, R. Gomperts, R. E. Stratmann, 
 O. Yazyev, A. J. Austin, R. Cammi, C. Pomelli, J. W. Ochterski, 
 R. L. Martin, K. Morokuma, V. G. Zakrzewski, G. A. Voth, 
 P. Salvador, J. J. Dannenberg, S. Dapprich, A. D. Daniels, 
 O. Farkas, J. B. Foresman, J. V. Ortiz, J. Cioslowski, 
 and D. J. Fox, Gaussian, Inc., Wallingford CT, 2013.
 
 ******************************************
 Gaussian 09:  EM64L-G09RevD.01 24-Apr-2013
                 3-Jun-2015 
 ******************************************
 %NProcShared=1
 Will use up to    1 processors via shared memory.
 %Chk=/fs/home/jms875/Documents/perovskites/gaussian/propane.chk
 %Mem=2048MB
 --------------------
 #N M062X/cc-pVDZ Opt
 --------------------
 1/14=-1,18=20,19=15,26=3,38=1/1,3;
 2/9=110,12=2,17=6,18=5,40=1/2;
 3/5=16,11=2,16=1,25=1,30=1,71=1,74=-55/1,2,3;
 4//1;
 5/5=2,38=5/2;
 6/7=2,8=2,9=2,10=2,28=1/1;
 7//1,2,3,16;
 1/14=-1,18=20,19=15,26=3/3(2);
 2/9=110/2;
 99//99;
 2/9=110/2;
 3/5=16,11=2,16=1,25=1,30=1,71=1,74=-55/1,2,3;
 4/5=5,16=3,69=1/1;
 5/5=2,38=5/2;
 7//1,2,3,16;
 1/14=-1,18=20,19=15,26=3/3(-5);
 2/9=110/2;
 6/7=2,8=2,9=2,10=2,19=2,28=1/1;
 99/9=1/99;
 ------------------
 run by gaussian.py
 ------------------
 Symbolic Z-matrix:
 Charge =  0 Multiplicity = 1
 C                     1.2492   -0.281     0. 
 C                     0.        0.6024    0. 
 C                    -1.2492   -0.281     0. 
 H                     1.2492   -0.9103    0.89 
 H                     1.2492   -0.9103   -0.89 
 H                     2.1392    0.3483    0. 
 H                     0.        1.2317    0.89 
 H                     0.        1.2317   -0.89 
 H                    -1.2492   -0.9103    0.89 
 H                    -2.1392    0.3483    0. 
 H                    -1.2492   -0.9103   -0.89 
 

 GradGradGradGradGradGradGradGradGradGradGradGradGradGradGradGradGradGrad
 Berny optimization.
 Initialization pass.
                           ----------------------------
                           !    Initial Parameters    !
                           ! (Angstroms and Degrees)  !
 --------------------------                            --------------------------
 ! Name  Definition              Value          Derivative Info.                !
 --------------------------------------------------------------------------------
 ! R1    R(1,2)                  1.53           estimate D2E/DX2                !
 ! R2    R(1,4)                  1.09           estimate D2E/DX2                !
 ! R3    R(1,5)                  1.09           estimate D2E/DX2                !
 ! R4    R(1,6)                  1.09           estimate D2E/DX2                !
 ! R5    R(2,3)                  1.53           estimate D2E/DX2                !
 ! R6    R(2,7)                  1.09           estimate D2E/DX2                !
 ! R7    R(2,8)                  1.09           estimate D2E/DX2                !
 ! R8    R(3,9)                  1.09           estimate D2E/DX2                !
 ! R9    R(3,10)                 1.09           estimate D2E/DX2                !
 ! R10   R(3,11)                 1.09           estimate D2E/DX2                !
 ! A1    A(2,1,4)              109.4719         estimate D2E/DX2                !
 ! A2    A(2,1,5)              109.4719         estimate D2E/DX2                !
 ! A3    A(2,1,6)              109.4698         estimate D2E/DX2                !
 ! A4    A(4,1,5)              109.4734         estimate D2E/DX2                !
 ! A5    A(4,1,6)              109.4701         estimate D2E/DX2                !
 ! A6    A(5,1,6)              109.4701         estimate D2E/DX2                !
 ! A7    A(1,2,3)              109.4662         estimate D2E/DX2                !
 ! A8    A(1,2,7)              109.4719         estimate D2E/DX2                !
 ! A9    A(1,2,8)              109.4719         estimate D2E/DX2                !
 ! A10   A(3,2,7)              109.4719         estimate D2E/DX2                !
 ! A11   A(3,2,8)              109.4719         estimate D2E/DX2                !
 ! A12   A(7,2,8)              109.4734         estimate D2E/DX2                !
 ! A13   A(2,3,9)              109.4719         estimate D2E/DX2                !
 ! A14   A(2,3,10)             109.4698         estimate D2E/DX2                !
 ! A15   A(2,3,11)             109.4719         estimate D2E/DX2                !
 ! A16   A(9,3,10)             109.4701         estimate D2E/DX2                !
 ! A17   A(9,3,11)             109.4734         estimate D2E/DX2                !
 ! A18   A(10,3,11)            109.4701         estimate D2E/DX2                !
 ! D1    D(4,1,2,3)            -60.0018         estimate D2E/DX2                !
 ! D2    D(4,1,2,7)             59.9965         estimate D2E/DX2                !
 ! D3    D(4,1,2,8)            180.0            estimate D2E/DX2                !
 ! D4    D(5,1,2,3)             60.0018         estimate D2E/DX2                !
 ! D5    D(5,1,2,7)            180.0            estimate D2E/DX2                !
 ! D6    D(5,1,2,8)            -59.9965         estimate D2E/DX2                !
 ! D7    D(6,1,2,3)            180.0            estimate D2E/DX2                !
 ! D8    D(6,1,2,7)            -60.0018         estimate D2E/DX2                !
 ! D9    D(6,1,2,8)             60.0018         estimate D2E/DX2                !
 ! D10   D(1,2,3,9)             60.0018         estimate D2E/DX2                !
 ! D11   D(1,2,3,10)           180.0            estimate D2E/DX2                !
 ! D12   D(1,2,3,11)           -60.0018         estimate D2E/DX2                !
 ! D13   D(7,2,3,9)            -59.9965         estimate D2E/DX2                !
 ! D14   D(7,2,3,10)            60.0018         estimate D2E/DX2                !
 ! D15   D(7,2,3,11)           180.0            estimate D2E/DX2                !
 ! D16   D(8,2,3,9)            180.0            estimate D2E/DX2                !
 ! D17   D(8,2,3,10)           -60.0018         estimate D2E/DX2                !
 ! D18   D(8,2,3,11)            59.9965         estimate D2E/DX2                !
 --------------------------------------------------------------------------------
 Trust Radius=3.00D-01 FncErr=1.00D-07 GrdErr=1.00D-06
 Number of steps in this run=     56 maximum allowed number of steps=    100.
 GradGradGradGradGradGradGradGradGradGradGradGradGradGradGradGradGradGrad

                          Input orientation:                          
 ---------------------------------------------------------------------
 Center     Atomic      Atomic             Coordinates (Angstroms)
 Number     Number       Type             X           Y           Z
 ---------------------------------------------------------------------
      1          6           0        1.249200   -0.281000    0.000000
      2          6           0        0.000000    0.602400    0.000000
      3          6           0       -1.249200   -0.281000    0.000000
      4          1           0        1.249200   -0.910300    0.890000
      5          1           0        1.249200   -0.910300   -0.890000
      6          1           0        2.139200    0.348300    0.000000
      7          1           0        0.000000    1.231700    0.890000
      8          1           0        0.000000    1.231700   -0.890000
      9          1           0       -1.249200   -0.910300    0.890000
     10          1           0       -2.139200    0.348300    0.000000
     11          1           0       -1.249200   -0.910300   -0.890000
 ---------------------------------------------------------------------
                    Distance matrix (angstroms):
                    1          2          3          4          5
     1  C    0.000000
     2  C    1.529999   0.000000
     3  C    2.498400   1.529999   0.000000
     4  H    1.090008   2.154266   2.725825   0.000000
     5  H    1.090008   2.154266   2.725825   1.780000   0.000000
     6  H    1.090008   2.154238   3.446342   1.779965   1.779965
     7  H    2.154266   1.090008   2.154266   2.479650   3.052387
     8  H    2.154266   1.090008   2.154266   3.052387   2.479650
     9  H    2.725825   2.154266   1.090008   2.498400   3.067638
    10  H    3.446342   2.154238   1.090008   3.722557   3.722557
    11  H    2.725825   2.154266   1.090008   3.067638   2.498400
                    6          7          8          9         10
     6  H    0.000000
     7  H    2.479652   0.000000
     8  H    2.479652   1.780000   0.000000
     9  H    3.722557   2.479650   3.052387   0.000000
    10  H    4.278400   2.479652   2.479652   1.779965   0.000000
    11  H    3.722557   3.052387   2.479650   1.780000   1.779965
                   11
    11  H    0.000000
 Stoichiometry    C3H8
 Framework group  C2V[C2(C),SGV(C2H2),SGV'(H2),X(H4)]
 Deg. of freedom     9
 Full point group                 C2V     NOp   4
 Largest Abelian subgroup         C2V     NOp   4
 Largest concise Abelian subgroup C2V     NOp   4
                         Standard orientation:                         
 ---------------------------------------------------------------------
 Center     Atomic      Atomic             Coordinates (Angstroms)
 Number     Number       Type             X           Y           Z
 ---------------------------------------------------------------------
      1          6           0        0.000000    1.249200   -0.271815
      2          6           0        0.000000    0.000000    0.611585
      3          6           0        0.000000   -1.249200   -0.271815
      4          1           0        0.890000    1.249200   -0.901115
      5          1           0       -0.890000    1.249200   -0.901115
      6          1           0        0.000000    2.139200    0.357485
      7          1           0        0.890000    0.000000    1.240885
      8          1           0       -0.890000    0.000000    1.240885
      9          1           0        0.890000   -1.249200   -0.901115
     10          1           0        0.000000   -2.139200    0.357485
     11          1           0       -0.890000   -1.249200   -0.901115
 ---------------------------------------------------------------------
 Rotational constants (GHZ):     28.5808408      8.7501483      7.6735950
 Standard basis: CC-pVDZ (5D, 7F)
 There are    32 symmetry adapted cartesian basis functions of A1  symmetry.
 There are    12 symmetry adapted cartesian basis functions of A2  symmetry.
 There are    17 symmetry adapted cartesian basis functions of B1  symmetry.
 There are    24 symmetry adapted cartesian basis functions of B2  symmetry.
 There are    30 symmetry adapted basis functions of A1  symmetry.
 There are    12 symmetry adapted basis functions of A2  symmetry.
 There are    17 symmetry adapted basis functions of B1  symmetry.
 There are    23 symmetry adapted basis functions of B2  symmetry.
    82 basis functions,   155 primitive gaussians,    85 cartesian basis functions
    13 alpha electrons       13 beta electrons
       nuclear repulsion energy        83.0135803855 Hartrees.
 NAtoms=   11 NActive=   11 NUniq=    5 SFac= 4.00D+00 NAtFMM=   60 NAOKFM=F Big=F
 Integral buffers will be    131072 words long.
 Raffenetti 2 integral format.
 Two-electron integral symmetry is turned on.
 One-electron integrals computed using PRISM.
 NBasis=    82 RedAO= T EigKep=  7.78D-03  NBF=    30    12    17    23
 NBsUse=    82 1.00D-06 EigRej= -1.00D+00 NBFU=    30    12    17    23
 ExpMin= 1.22D-01 ExpMax= 6.67D+03 ExpMxC= 2.28D+02 IAcc=1 IRadAn=         1 AccDes= 0.00D+00
 Harris functional with IExCor= 1009 and IRadAn=       1 diagonalized for initial guess.
 HarFok:  IExCor= 1009 AccDes= 0.00D+00 IRadAn=         1 IDoV= 1 UseB2=F ITyADJ=14
 ICtDFT=  3500011 ScaDFX=  1.000000  1.000000  1.000000  1.000000
 FoFCou: FMM=F IPFlag=           0 FMFlag=      100000 FMFlg1=           0
         NFxFlg=           0 DoJE=T BraDBF=F KetDBF=T FulRan=T
         wScrn=  0.000000 ICntrl=     500 IOpCl=  0 I1Cent=   200000004 NGrid=           0
         NMat0=    1 NMatS0=      1 NMatT0=    0 NMatD0=    1 NMtDS0=    0 NMtDT0=    0
 Petite list used in FoFCou.
 Initial guess orbital symmetries:
       Occupied  (B2) (A1) (A1) (A1) (B2) (A1) (B1) (A1) (B2) (A2)
                 (B2) (A1) (B1)
       Virtual   (A1) (B1) (A1) (B2) (A1) (B2) (A1) (B1) (A2) (B2)
                 (A1) (B1) (B2) (A2) (A1) (A1) (B2) (B1) (B2) (A1)
                 (B1) (B2) (A2) (B1) (A1) (A1) (B2) (A1) (A2) (A1)
                 (B2) (A2) (B1) (B2) (A1) (B1) (A2) (A1) (B2) (A1)
                 (B1) (A2) (B2) (A1) (B1) (B2) (B1) (A1) (A2) (B1)
                 (A1) (B2) (B2) (A1) (B2) (A2) (A1) (B1) (B2) (A1)
                 (A2) (B1) (A1) (B2) (B2) (A1) (A1) (A2) (B1)
 The electronic state of the initial guess is 1-A1.
 Keep R1 ints in memory in symmetry-blocked form, NReq=7306801.
 Requested convergence on RMS density matrix=1.00D-08 within 128 cycles.
 Requested convergence on MAX density matrix=1.00D-06.
 Requested convergence on             energy=1.00D-06.
 No special actions if energy rises.
 Integral accuracy reduced to 1.0D-05 until final iterations.
 Initial convergence to 1.0D-05 achieved.  Increase integral accuracy.
 SCF Done:  E(RM062X) =  -119.066453748     A.U. after   13 cycles
            NFock= 13  Conv=0.32D-08     -V/T= 2.0077

 **********************************************************************

            Population analysis using the SCF density.

 **********************************************************************

 Orbital symmetries:
       Occupied  (A1) (B2) (A1) (A1) (B2) (A1) (B1) (A1) (B2) (A2)
                 (A1) (B1) (B2)
       Virtual   (A1) (B1) (B2) (A1) (A1) (B1) (B2) (A2) (A1) (B2)
                 (A1) (B1) (A2) (B2) (A1) (B2) (B1) (A1) (B2) (B2)
                 (B1) (A2) (B1) (A1) (A1) (A1) (B2) (A1) (A2) (A1)
                 (B2) (A2) (B1) (B2) (A1) (B1) (A2) (A1) (A1) (B2)
                 (B1) (A2) (B2) (B1) (A1) (B2) (B1) (A2) (A1) (B1)
                 (A1) (B2) (B2) (A1) (B2) (A2) (A1) (B1) (B2) (A1)
                 (A2) (A1) (B1) (B2) (B2) (A1) (A1) (A2) (B1)
 The electronic state is 1-A1.
 Alpha  occ. eigenvalues --  -10.53589 -10.52981 -10.52978  -0.87710  -0.76463
 Alpha  occ. eigenvalues --   -0.66058  -0.52883  -0.50032  -0.45721  -0.44128
 Alpha  occ. eigenvalues --   -0.39123  -0.38829  -0.38236
 Alpha virt. eigenvalues --    0.10327   0.15179   0.15332   0.15429   0.18148
 Alpha virt. eigenvalues --    0.19816   0.20947   0.22051   0.25121   0.29371
 Alpha virt. eigenvalues --    0.44677   0.47322   0.47819   0.48106   0.49327
 Alpha virt. eigenvalues --    0.64645   0.65697   0.65921   0.69078   0.71676
 Alpha virt. eigenvalues --    0.72133   0.72971   0.73079   0.73308   0.74095
 Alpha virt. eigenvalues --    0.78652   0.80258   0.95084   0.96268   1.01547
 Alpha virt. eigenvalues --    1.19140   1.27841   1.28242   1.33217   1.40911
 Alpha virt. eigenvalues --    1.47119   1.48122   1.48829   1.62791   1.63496
 Alpha virt. eigenvalues --    1.65988   1.68516   1.70461   1.72151   1.73046
 Alpha virt. eigenvalues --    1.73362   1.74562   1.75447   1.77484   1.81397
 Alpha virt. eigenvalues --    1.88663   1.90585   2.02410   2.04354   2.05615
 Alpha virt. eigenvalues --    2.08105   2.21921   2.24519   2.29250   2.32758
 Alpha virt. eigenvalues --    2.33305   2.45548   2.45859   2.47776   2.52297
 Alpha virt. eigenvalues --    2.58258   2.64866   2.65539   2.71657
          Condensed to atoms (all electrons):
               1          2          3          4          5          6
     1  C    4.559425   0.440685  -0.057178   0.399464   0.399464   0.389529
     2  C    0.440685   4.623656   0.440685  -0.029455  -0.029455  -0.018995
     3  C   -0.057178   0.440685   4.559425  -0.004996  -0.004996   0.006605
     4  H    0.399464  -0.029455  -0.004996   0.648980  -0.028172  -0.025961
     5  H    0.399464  -0.029455  -0.004996  -0.028172   0.648980  -0.025961
     6  H    0.389529  -0.018995   0.006605  -0.025961  -0.025961   0.649754
     7  H   -0.026342   0.386486  -0.026342  -0.008581   0.008519  -0.004613
     8  H   -0.026342   0.386486  -0.026342   0.008519  -0.008581  -0.004613
     9  H   -0.004996  -0.029455   0.399464   0.006455  -0.001680   0.000172
    10  H    0.006605  -0.018995   0.389529   0.000172   0.000172  -0.000504
    11  H   -0.004996  -0.029455   0.399464  -0.001680   0.006455   0.000172
               7          8          9         10         11
     1  C   -0.026342  -0.026342  -0.004996   0.006605  -0.004996
     2  C    0.386486   0.386486  -0.029455  -0.018995  -0.029455
     3  C   -0.026342  -0.026342   0.399464   0.389529   0.399464
     4  H   -0.008581   0.008519   0.006455   0.000172  -0.001680
     5  H    0.008519  -0.008581  -0.001680   0.000172   0.006455
     6  H   -0.004613  -0.004613   0.000172  -0.000504   0.000172
     7  H    0.681185  -0.037124  -0.008581  -0.004613   0.008519
     8  H   -0.037124   0.681185   0.008519  -0.004613  -0.008581
     9  H   -0.008581   0.008519   0.648980  -0.025961  -0.028172
    10  H   -0.004613  -0.004613  -0.025961   0.649754  -0.025961
    11  H    0.008519  -0.008581  -0.028172  -0.025961   0.648980
 Mulliken charges:
               1
     1  C   -0.075319
     2  C   -0.122187
     3  C   -0.075319
     4  H    0.035254
     5  H    0.035254
     6  H    0.034416
     7  H    0.031489
     8  H    0.031489
     9  H    0.035254
    10  H    0.034416
    11  H    0.035254
 Sum of Mulliken charges =   0.00000
 Mulliken charges with hydrogens summed into heavy atoms:
               1
     1  C    0.029605
     2  C   -0.059210
     3  C    0.029605
 Electronic spatial extent (au):  <R**2>=            221.9926
 Charge=              0.0000 electrons
 Dipole moment (field-independent basis, Debye):
    X=              0.0000    Y=              0.0000    Z=              0.0790  Tot=              0.0790
 Quadrupole moment (field-independent basis, Debye-Ang):
   XX=            -21.0885   YY=            -22.3398   ZZ=            -21.7861
   XY=              0.0000   XZ=              0.0000   YZ=              0.0000
 Traceless Quadrupole moment (field-independent basis, Debye-Ang):
   XX=              0.6497   YY=             -0.6017   ZZ=             -0.0480
   XY=              0.0000   XZ=              0.0000   YZ=              0.0000
 Octapole moment (field-independent basis, Debye-Ang**2):
  XXX=              0.0000  YYY=              0.0000  ZZZ=              0.1497  XYY=              0.0000
  XXY=              0.0000  XXZ=             -0.3973  XZZ=              0.0000  YZZ=              0.0000
  YYZ=              1.7423  XYZ=              0.0000
 Hexadecapole moment (field-independent basis, Debye-Ang**3):
 XXXX=            -42.7811 YYYY=           -195.3831 ZZZZ=            -71.5559 XXXY=              0.0000
 XXXZ=              0.0000 YYYX=              0.0000 YYYZ=              0.0000 ZZZX=              0.0000
 ZZZY=              0.0000 XXYY=            -40.2008 XXZZ=            -17.0647 YYZZ=            -44.0417
 XXYZ=              0.0000 YYXZ=              0.0000 ZZXY=              0.0000
 N-N= 8.301358038550D+01 E-N=-4.407426820075D+02  KE= 1.181619777263D+02
 Symmetry A1   KE= 7.318553286009D+01
 Symmetry A2   KE= 1.999417915652D+00
 Symmetry B1   KE= 3.780085143157D+00
 Symmetry B2   KE= 3.919694180738D+01
 Calling FoFJK, ICntrl=      2127 FMM=F ISym2X=1 I1Cent= 0 IOpClX= 0 NMat=1 NMatS=1 NMatT=0.
 ***** Axes restored to original set *****
 -------------------------------------------------------------------
 Center     Atomic                   Forces (Hartrees/Bohr)
 Number     Number              X              Y              Z
 -------------------------------------------------------------------
      1        6          -0.007665315    0.013988166    0.000000000
      2        6           0.000000000   -0.020096057    0.000000000
      3        6           0.007665315    0.013988166    0.000000000
      4        1           0.002557989   -0.005329586    0.004415439
      5        1           0.002557989   -0.005329586   -0.004415439
      6        1           0.008097399   -0.000363680    0.000000000
      7        1           0.000000000    0.007082713    0.003783867
      8        1           0.000000000    0.007082713   -0.003783867
      9        1          -0.002557989   -0.005329586    0.004415439
     10        1          -0.008097399   -0.000363680    0.000000000
     11        1          -0.002557989   -0.005329586   -0.004415439
 -------------------------------------------------------------------
 Cartesian Forces:  Max     0.020096057 RMS     0.006492056

 GradGradGradGradGradGradGradGradGradGradGradGradGradGradGradGradGradGrad
 Berny optimization.
 FormGI is forming the generalized inverse of G from B-inverse, IUseBI=4.
 Internal  Forces:  Max     0.007608234 RMS     0.003825631
 Search for a local minimum.
 Step number   1 out of a maximum of   56
 All quantities printed in internal units (Hartrees-Bohrs-Radians)
 Mixed Optimization -- RFO/linear search
 Second derivative matrix not updated -- first step.
 ITU=  0
     Eigenvalues ---    0.00369   0.00369   0.03942   0.04991   0.05806
     Eigenvalues ---    0.05806   0.05806   0.05806   0.07724   0.11736
     Eigenvalues ---    0.16000   0.16000   0.16000   0.16000   0.16000
     Eigenvalues ---    0.16000   0.21949   0.29424   0.29424   0.34812
     Eigenvalues ---    0.34812   0.34812   0.34812   0.34812   0.34812
     Eigenvalues ---    0.34812   0.34812
 RFO step:  Lambda=-3.17329579D-03 EMin= 3.69121377D-03
 Linear search not attempted -- first point.
 Iteration  1 RMS(Cart)=  0.03471549 RMS(Int)=  0.00042755
 Iteration  2 RMS(Cart)=  0.00035400 RMS(Int)=  0.00022060
 Iteration  3 RMS(Cart)=  0.00000011 RMS(Int)=  0.00022060
 ClnCor:  largest displacement from symmetrization is 4.62D-12 for atom     5.
 Variable       Old X    -DE/DX   Delta X   Delta X   Delta X     New X
                                 (Linear)    (Quad)   (Total)
    R1        2.89128   0.00282   0.00000   0.00947   0.00947   2.90075
    R2        2.05982   0.00668   0.00000   0.01902   0.01902   2.07884
    R3        2.05982   0.00668   0.00000   0.01902   0.01902   2.07884
    R4        2.05982   0.00640   0.00000   0.01822   0.01822   2.07804
    R5        2.89128   0.00282   0.00000   0.00947   0.00947   2.90075
    R6        2.05982   0.00718   0.00000   0.02044   0.02044   2.08025
    R7        2.05982   0.00718   0.00000   0.02044   0.02044   2.08025
    R8        2.05982   0.00668   0.00000   0.01902   0.01902   2.07884
    R9        2.05982   0.00640   0.00000   0.01822   0.01822   2.07804
   R10        2.05982   0.00668   0.00000   0.01902   0.01902   2.07884
    A1        1.91065   0.00270   0.00000   0.01525   0.01501   1.92565
    A2        1.91065   0.00270   0.00000   0.01525   0.01501   1.92565
    A3        1.91061   0.00614   0.00000   0.04023   0.03978   1.95039
    A4        1.91067  -0.00334   0.00000  -0.02566  -0.02568   1.88499
    A5        1.91061  -0.00410   0.00000  -0.02253  -0.02296   1.88765
    A6        1.91061  -0.00410   0.00000  -0.02253  -0.02296   1.88765
    A7        1.91055   0.00761   0.00000   0.04573   0.04528   1.95582
    A8        1.91065  -0.00171   0.00000  -0.00125  -0.00161   1.90904
    A9        1.91065  -0.00171   0.00000  -0.00125  -0.00161   1.90904
   A10        1.91065  -0.00171   0.00000  -0.00125  -0.00161   1.90904
   A11        1.91065  -0.00171   0.00000  -0.00125  -0.00161   1.90904
   A12        1.91067  -0.00077   0.00000  -0.04072  -0.04081   1.86986
   A13        1.91065   0.00270   0.00000   0.01525   0.01501   1.92565
   A14        1.91061   0.00614   0.00000   0.04023   0.03978   1.95039
   A15        1.91065   0.00270   0.00000   0.01525   0.01501   1.92565
   A16        1.91061  -0.00410   0.00000  -0.02253  -0.02296   1.88765
   A17        1.91067  -0.00334   0.00000  -0.02566  -0.02568   1.88499
   A18        1.91061  -0.00410   0.00000  -0.02253  -0.02296   1.88765
    D1       -1.04723   0.00039   0.00000   0.00637   0.00648  -1.04075
    D2        1.04714   0.00191   0.00000   0.03208   0.03223   1.07936
    D3       -3.14159  -0.00113   0.00000  -0.01933  -0.01926   3.12233
    D4        1.04723  -0.00039   0.00000  -0.00637  -0.00648   1.04075
    D5        3.14159   0.00113   0.00000   0.01933   0.01926  -3.12233
    D6       -1.04714  -0.00191   0.00000  -0.03208  -0.03223  -1.07936
    D7        3.14159   0.00000   0.00000   0.00000   0.00000   3.14159
    D8       -1.04723   0.00152   0.00000   0.02570   0.02575  -1.02148
    D9        1.04723  -0.00152   0.00000  -0.02570  -0.02575   1.02148
   D10        1.04723  -0.00039   0.00000  -0.00637  -0.00648   1.04075
   D11        3.14159   0.00000   0.00000   0.00000   0.00000   3.14159
   D12       -1.04723   0.00039   0.00000   0.00637   0.00648  -1.04075
   D13       -1.04714  -0.00191   0.00000  -0.03208  -0.03223  -1.07936
   D14        1.04723  -0.00152   0.00000  -0.02570  -0.02575   1.02148
   D15        3.14159  -0.00113   0.00000  -0.01933  -0.01926   3.12233
   D16        3.14159   0.00113   0.00000   0.01933   0.01926  -3.12233
   D17       -1.04723   0.00152   0.00000   0.02570   0.02575  -1.02148
   D18        1.04714   0.00191   0.00000   0.03208   0.03223   1.07936
         Item               Value     Threshold  Converged?
 Maximum Force            0.007608     0.000450     NO 
 RMS     Force            0.003826     0.000300     NO 
 Maximum Displacement     0.093398     0.001800     NO 
 RMS     Displacement     0.034500     0.001200     NO 
 Predicted change in Energy=-1.628053D-03
 GradGradGradGradGradGradGradGradGradGradGradGradGradGradGradGradGradGrad

                          Input orientation:                          
 ---------------------------------------------------------------------
 Center     Atomic      Atomic             Coordinates (Angstroms)
 Number     Number       Type             X           Y           Z
 ---------------------------------------------------------------------
      1          6           0        1.273034   -0.270529    0.000000
      2          6           0        0.000000    0.587169    0.000000
      3          6           0       -1.273034   -0.270529    0.000000
      4          1           0        1.298624   -0.916614    0.889991
      5          1           0        1.298624   -0.916614   -0.889991
      6          1           0        2.181660    0.348853    0.000000
      7          1           0        0.000000    1.240919    0.885675
      8          1           0        0.000000    1.240919   -0.885675
      9          1           0       -1.298624   -0.916614    0.889991
     10          1           0       -2.181660    0.348853    0.000000
     11          1           0       -1.298624   -0.916614   -0.889991
 ---------------------------------------------------------------------
                    Distance matrix (angstroms):
                    1          2          3          4          5
     1  C    0.000000
     2  C    1.535012   0.000000
     3  C    2.546069   1.535012   0.000000
     4  H    1.100074   2.177124   2.796951   0.000000
     5  H    1.100074   2.177124   2.796951   1.779982   0.000000
     6  H    1.099652   2.194638   3.509779   1.781359   1.781359
     7  H    2.165528   1.100822   2.165528   2.518212   3.081292
     8  H    2.165528   1.100822   2.165528   3.081292   2.518212
     9  H    2.796951   2.177124   1.100074   2.597248   3.148656
    10  H    3.509779   2.194638   1.099652   3.808657   3.808657
    11  H    2.796951   2.177124   1.100074   3.148656   2.597248
                    6          7          8          9         10
     6  H    0.000000
     7  H    2.517905   0.000000
     8  H    2.517905   1.771350   0.000000
     9  H    3.808657   2.518212   3.081292   0.000000
    10  H    4.363320   2.517905   2.517905   1.781359   0.000000
    11  H    3.808657   3.081292   2.518212   1.779982   1.781359
                   11
    11  H    0.000000
 Stoichiometry    C3H8
 Framework group  C2V[C2(C),SGV(C2H2),SGV'(H2),X(H4)]
 Deg. of freedom     9
 Full point group                 C2V     NOp   4
 Largest Abelian subgroup         C2V     NOp   4
 Largest concise Abelian subgroup C2V     NOp   4
                         Standard orientation:                         
 ---------------------------------------------------------------------
 Center     Atomic      Atomic             Coordinates (Angstroms)
 Number     Number       Type             X           Y           Z
 ---------------------------------------------------------------------
      1          6           0        0.000000    1.273034   -0.262443
      2          6           0        0.000000    0.000000    0.595255
      3          6           0        0.000000   -1.273034   -0.262443
      4          1           0        0.889991    1.298624   -0.908527
      5          1           0       -0.889991    1.298624   -0.908527
      6          1           0        0.000000    2.181660    0.356939
      7          1           0        0.885675    0.000000    1.249005
      8          1           0       -0.885675    0.000000    1.249005
      9          1           0        0.889991   -1.298624   -0.908527
     10          1           0        0.000000   -2.181660    0.356939
     11          1           0       -0.889991   -1.298624   -0.908527
 ---------------------------------------------------------------------
 Rotational constants (GHZ):     29.0380809      8.4143870      7.4411469
 Standard basis: CC-pVDZ (5D, 7F)
 There are    32 symmetry adapted cartesian basis functions of A1  symmetry.
 There are    12 symmetry adapted cartesian basis functions of A2  symmetry.
 There are    17 symmetry adapted cartesian basis functions of B1  symmetry.
 There are    24 symmetry adapted cartesian basis functions of B2  symmetry.
 There are    30 symmetry adapted basis functions of A1  symmetry.
 There are    12 symmetry adapted basis functions of A2  symmetry.
 There are    17 symmetry adapted basis functions of B1  symmetry.
 There are    23 symmetry adapted basis functions of B2  symmetry.
    82 basis functions,   155 primitive gaussians,    85 cartesian basis functions
    13 alpha electrons       13 beta electrons
       nuclear repulsion energy        82.2036669020 Hartrees.
 NAtoms=   11 NActive=   11 NUniq=    5 SFac= 4.00D+00 NAtFMM=   60 NAOKFM=F Big=F
 Integral buffers will be    131072 words long.
 Raffenetti 2 integral format.
 Two-electron integral symmetry is turned on.
 One-electron integrals computed using PRISM.
 NBasis=    82 RedAO= T EigKep=  8.13D-03  NBF=    30    12    17    23
 NBsUse=    82 1.00D-06 EigRej= -1.00D+00 NBFU=    30    12    17    23
 Initial guess from the checkpoint file:  "/fs/home/jms875/Documents/perovskites/gaussian/propane.chk"
 B after Tr=     0.000000    0.000000    0.000000
         Rot=    1.000000    0.000000    0.000000    0.000000 Ang=   0.00 deg.
 Initial guess orbital symmetries:
       Occupied  (A1) (B2) (A1) (A1) (B2) (A1) (B1) (A1) (B2) (A2)
                 (A1) (B1) (B2)
       Virtual   (A1) (A1) (A1) (A1) (A1) (A1) (A1) (A1) (A1) (A1)
                 (A1) (A1) (A1) (A1) (A1) (A1) (A1) (A1) (A1) (A1)
                 (A1) (A1) (A1) (A1) (A2) (A2) (A2) (A2) (A2) (A2)
                 (A2) (A2) (A2) (A2) (A2) (B1) (B1) (B1) (B1) (B1)
                 (B1) (B1) (B1) (B1) (B1) (B1) (B1) (B1) (B1) (B1)
                 (B2) (B2) (B2) (B2) (B2) (B2) (B2) (B2) (B2) (B2)
                 (B2) (B2) (B2) (B2) (B2) (B2) (B2) (B2) (B2)
 ExpMin= 1.22D-01 ExpMax= 6.67D+03 ExpMxC= 2.28D+02 IAcc=1 IRadAn=         1 AccDes= 0.00D+00
 Harris functional with IExCor= 1009 and IRadAn=       1 diagonalized for initial guess.
 HarFok:  IExCor= 1009 AccDes= 0.00D+00 IRadAn=         1 IDoV= 1 UseB2=F ITyADJ=14
 ICtDFT=  3500011 ScaDFX=  1.000000  1.000000  1.000000  1.000000
 FoFCou: FMM=F IPFlag=           0 FMFlag=      100000 FMFlg1=           0
         NFxFlg=           0 DoJE=T BraDBF=F KetDBF=T FulRan=T
         wScrn=  0.000000 ICntrl=     500 IOpCl=  0 I1Cent=   200000004 NGrid=           0
         NMat0=    1 NMatS0=      1 NMatT0=    0 NMatD0=    1 NMtDS0=    0 NMtDT0=    0
 Petite list used in FoFCou.
 Keep R1 ints in memory in symmetry-blocked form, NReq=7306801.
 Requested convergence on RMS density matrix=1.00D-08 within 128 cycles.
 Requested convergence on MAX density matrix=1.00D-06.
 Requested convergence on             energy=1.00D-06.
 No special actions if energy rises.
 Integral accuracy reduced to 1.0D-05 until final iterations.
 Initial convergence to 1.0D-05 achieved.  Increase integral accuracy.
 SCF Done:  E(RM062X) =  -119.068070113     A.U. after   11 cycles
            NFock= 11  Conv=0.39D-08     -V/T= 2.0089
 Calling FoFJK, ICntrl=      2127 FMM=F ISym2X=1 I1Cent= 0 IOpClX= 0 NMat=1 NMatS=1 NMatT=0.
 ***** Axes restored to original set *****
 -------------------------------------------------------------------
 Center     Atomic                   Forces (Hartrees/Bohr)
 Number     Number              X              Y              Z
 -------------------------------------------------------------------
      1        6          -0.005207793    0.003516996    0.000000000
      2        6           0.000000000   -0.005978113    0.000000000
      3        6           0.005207793    0.003516996    0.000000000
      4        1           0.000621924   -0.000752440    0.000100902
      5        1           0.000621924   -0.000752440   -0.000100902
      6        1          -0.000326616   -0.000162652    0.000000000
      7        1           0.000000000    0.001139593   -0.000237270
      8        1           0.000000000    0.001139593    0.000237270
      9        1          -0.000621924   -0.000752440    0.000100902
     10        1           0.000326616   -0.000162652    0.000000000
     11        1          -0.000621924   -0.000752440   -0.000100902
 -------------------------------------------------------------------
 Cartesian Forces:  Max     0.005978113 RMS     0.001919180

 GradGradGradGradGradGradGradGradGradGradGradGradGradGradGradGradGradGrad
 Berny optimization.
 Using GEDIIS/GDIIS optimizer.
 FormGI is forming the generalized inverse of G from B-inverse, IUseBI=4.
 Internal  Forces:  Max     0.004591698 RMS     0.001074820
 Search for a local minimum.
 Step number   2 out of a maximum of   56
 All quantities printed in internal units (Hartrees-Bohrs-Radians)
 Mixed Optimization -- RFO/linear search
 Update second derivatives using D2CorX and points    1    2
 DE= -1.62D-03 DEPred=-1.63D-03 R= 9.93D-01
 TightC=F SS=  1.41D+00  RLast= 1.51D-01 DXNew= 5.0454D-01 4.5302D-01
 Trust test= 9.93D-01 RLast= 1.51D-01 DXMaxT set to 4.53D-01
 ITU=  1  0
 Use linear search instead of GDIIS.
     Eigenvalues ---    0.00369   0.00369   0.03609   0.04653   0.05476
     Eigenvalues ---    0.05476   0.05644   0.05674   0.08222   0.12120
     Eigenvalues ---    0.14328   0.16000   0.16000   0.16000   0.16000
     Eigenvalues ---    0.16460   0.22293   0.29424   0.30063   0.34658
     Eigenvalues ---    0.34812   0.34812   0.34812   0.34812   0.34812
     Eigenvalues ---    0.34812   0.37815
 RFO step:  Lambda=-2.27438910D-04 EMin= 3.69121377D-03
 Quartic linear search produced a step of  0.03682.
 Iteration  1 RMS(Cart)=  0.00469454 RMS(Int)=  0.00002765
 Iteration  2 RMS(Cart)=  0.00002223 RMS(Int)=  0.00001428
 Iteration  3 RMS(Cart)=  0.00000000 RMS(Int)=  0.00001428
 ClnCor:  largest displacement from symmetrization is 9.86D-10 for atom     5.
 Variable       Old X    -DE/DX   Delta X   Delta X   Delta X     New X
                                 (Linear)    (Quad)   (Total)
    R1        2.90075  -0.00459   0.00035  -0.01585  -0.01550   2.88525
    R2        2.07884   0.00054   0.00070   0.00223   0.00293   2.08177
    R3        2.07884   0.00054   0.00070   0.00223   0.00293   2.08177
    R4        2.07804  -0.00036   0.00067  -0.00047   0.00020   2.07824
    R5        2.90075  -0.00459   0.00035  -0.01585  -0.01550   2.88525
    R6        2.08025   0.00049   0.00075   0.00212   0.00287   2.08313
    R7        2.08025   0.00049   0.00075   0.00212   0.00287   2.08313
    R8        2.07884   0.00054   0.00070   0.00223   0.00293   2.08177
    R9        2.07804  -0.00036   0.00067  -0.00047   0.00020   2.07824
   R10        2.07884   0.00054   0.00070   0.00223   0.00293   2.08177
    A1        1.92565   0.00100   0.00055   0.00712   0.00765   1.93330
    A2        1.92565   0.00100   0.00055   0.00712   0.00765   1.93330
    A3        1.95039  -0.00045   0.00146  -0.00196  -0.00051   1.94988
    A4        1.88499  -0.00095  -0.00095  -0.00631  -0.00729   1.87770
    A5        1.88765  -0.00033  -0.00085  -0.00327  -0.00413   1.88353
    A6        1.88765  -0.00033  -0.00085  -0.00327  -0.00413   1.88353
    A7        1.95582  -0.00089   0.00167  -0.00053   0.00111   1.95693
    A8        1.90904   0.00040  -0.00006   0.00302   0.00294   1.91198
    A9        1.90904   0.00040  -0.00006   0.00302   0.00294   1.91198
   A10        1.90904   0.00040  -0.00006   0.00302   0.00294   1.91198
   A11        1.90904   0.00040  -0.00006   0.00302   0.00294   1.91198
   A12        1.86986  -0.00071  -0.00150  -0.01208  -0.01358   1.85628
   A13        1.92565   0.00100   0.00055   0.00712   0.00765   1.93330
   A14        1.95039  -0.00045   0.00146  -0.00196  -0.00051   1.94988
   A15        1.92565   0.00100   0.00055   0.00712   0.00765   1.93330
   A16        1.88765  -0.00033  -0.00085  -0.00327  -0.00413   1.88353
   A17        1.88499  -0.00095  -0.00095  -0.00631  -0.00729   1.87770
   A18        1.88765  -0.00033  -0.00085  -0.00327  -0.00413   1.88353
    D1       -1.04075  -0.00004   0.00024  -0.00059  -0.00036  -1.04110
    D2        1.07936   0.00015   0.00119   0.00496   0.00614   1.08551
    D3        3.12233  -0.00024  -0.00071  -0.00614  -0.00686   3.11547
    D4        1.04075   0.00004  -0.00024   0.00059   0.00036   1.04110
    D5       -3.12233   0.00024   0.00071   0.00614   0.00686  -3.11547
    D6       -1.07936  -0.00015  -0.00119  -0.00496  -0.00614  -1.08551
    D7        3.14159   0.00000   0.00000   0.00000   0.00000   3.14159
    D8       -1.02148   0.00020   0.00095   0.00555   0.00650  -1.01498
    D9        1.02148  -0.00020  -0.00095  -0.00555  -0.00650   1.01498
   D10        1.04075   0.00004  -0.00024   0.00059   0.00036   1.04110
   D11        3.14159   0.00000   0.00000   0.00000   0.00000   3.14159
   D12       -1.04075  -0.00004   0.00024  -0.00059  -0.00036  -1.04110
   D13       -1.07936  -0.00015  -0.00119  -0.00496  -0.00614  -1.08551
   D14        1.02148  -0.00020  -0.00095  -0.00555  -0.00650   1.01498
   D15        3.12233  -0.00024  -0.00071  -0.00614  -0.00686   3.11547
   D16       -3.12233   0.00024   0.00071   0.00614   0.00686  -3.11547
   D17       -1.02148   0.00020   0.00095   0.00555   0.00650  -1.01498
   D18        1.07936   0.00015   0.00119   0.00496   0.00614   1.08551
         Item               Value     Threshold  Converged?
 Maximum Force            0.004592     0.000450     NO 
 RMS     Force            0.001075     0.000300     NO 
 Maximum Displacement     0.013052     0.001800     NO 
 RMS     Displacement     0.004697     0.001200     NO 
 Predicted change in Energy=-1.150915D-04
 GradGradGradGradGradGradGradGradGradGradGradGradGradGradGradGradGradGrad

                          Input orientation:                          
 ---------------------------------------------------------------------
 Center     Atomic      Atomic             Coordinates (Angstroms)
 Number     Number       Type             X           Y           Z
 ---------------------------------------------------------------------
      1          6           0        1.266704   -0.269150    0.000000
      2          6           0        0.000000    0.583262    0.000000
      3          6           0       -1.266704   -0.269150    0.000000
      4          1           0        1.300248   -0.919032    0.888879
      5          1           0        1.300248   -0.919032   -0.888879
      6          1           0        2.174753    0.351261    0.000000
      7          1           0        0.000000    1.243922    0.882433
      8          1           0        0.000000    1.243922   -0.882433
      9          1           0       -1.300248   -0.919032    0.888879
     10          1           0       -2.174753    0.351261    0.000000
     11          1           0       -1.300248   -0.919032   -0.888879
 ---------------------------------------------------------------------
                    Distance matrix (angstroms):
                    1          2          3          4          5
     1  C    0.000000
     2  C    1.526809   0.000000
     3  C    2.533409   1.526809   0.000000
     4  H    1.101625   2.176611   2.793151   0.000000
     5  H    1.101625   2.176611   2.793151   1.777759   0.000000
     6  H    1.099756   2.187093   3.496933   1.780031   1.780031
     7  H    2.161623   1.102343   2.161623   2.523698   3.083271
     8  H    2.161623   1.102343   2.161623   3.083271   2.523698
     9  H    2.793151   2.176611   1.101625   2.600496   3.150080
    10  H    3.496933   2.187093   1.099756   3.805178   3.805178
    11  H    2.793151   2.176611   1.101625   3.150080   2.600496
                    6          7          8          9         10
     6  H    0.000000
     7  H    2.510992   0.000000
     8  H    2.510992   1.764866   0.000000
     9  H    3.805178   2.523698   3.083271   0.000000
    10  H    4.349507   2.510992   2.510992   1.780031   0.000000
    11  H    3.805178   3.083271   2.523698   1.777759   1.780031
                   11
    11  H    0.000000
 Stoichiometry    C3H8
 Framework group  C2V[C2(C),SGV(C2H2),SGV'(H2),X(H4)]
 Deg. of freedom     9
 Full point group                 C2V     NOp   4
 Largest Abelian subgroup         C2V     NOp   4
 Largest concise Abelian subgroup C2V     NOp   4
                         Standard orientation:                         
 ---------------------------------------------------------------------
 Center     Atomic      Atomic             Coordinates (Angstroms)
 Number     Number       Type             X           Y           Z
 ---------------------------------------------------------------------
      1          6           0        0.000000    1.266704   -0.260843
      2          6           0        0.000000    0.000000    0.591569
      3          6           0        0.000000   -1.266704   -0.260843
      4          1           0        0.888879    1.300248   -0.910724
      5          1           0       -0.888879    1.300248   -0.910724
      6          1           0        0.000000    2.174753    0.359569
      7          1           0        0.882433    0.000000    1.252229
      8          1           0       -0.882433    0.000000    1.252229
      9          1           0        0.888879   -1.300248   -0.910724
     10          1           0        0.000000   -2.174753    0.359569
     11          1           0       -0.888879   -1.300248   -0.910724
 ---------------------------------------------------------------------
 Rotational constants (GHZ):     29.1316436      8.4777652      7.4925394
 Standard basis: CC-pVDZ (5D, 7F)
 There are    32 symmetry adapted cartesian basis functions of A1  symmetry.
 There are    12 symmetry adapted cartesian basis functions of A2  symmetry.
 There are    17 symmetry adapted cartesian basis functions of B1  symmetry.
 There are    24 symmetry adapted cartesian basis functions of B2  symmetry.
 There are    30 symmetry adapted basis functions of A1  symmetry.
 There are    12 symmetry adapted basis functions of A2  symmetry.
 There are    17 symmetry adapted basis functions of B1  symmetry.
 There are    23 symmetry adapted basis functions of B2  symmetry.
    82 basis functions,   155 primitive gaussians,    85 cartesian basis functions
    13 alpha electrons       13 beta electrons
       nuclear repulsion energy        82.3874434222 Hartrees.
 NAtoms=   11 NActive=   11 NUniq=    5 SFac= 4.00D+00 NAtFMM=   60 NAOKFM=F Big=F
 Integral buffers will be    131072 words long.
 Raffenetti 2 integral format.
 Two-electron integral symmetry is turned on.
 One-electron integrals computed using PRISM.
 NBasis=    82 RedAO= T EigKep=  7.97D-03  NBF=    30    12    17    23
 NBsUse=    82 1.00D-06 EigRej= -1.00D+00 NBFU=    30    12    17    23
 Initial guess from the checkpoint file:  "/fs/home/jms875/Documents/perovskites/gaussian/propane.chk"
 B after Tr=     0.000000    0.000000    0.000000
         Rot=    1.000000    0.000000    0.000000    0.000000 Ang=   0.00 deg.
 Initial guess orbital symmetries:
       Occupied  (A1) (B2) (A1) (A1) (B2) (A1) (B1) (A1) (B2) (A2)
                 (B2) (A1) (B1)
       Virtual   (A1) (A1) (A1) (A1) (A1) (A1) (A1) (A1) (A1) (A1)
                 (A1) (A1) (A1) (A1) (A1) (A1) (A1) (A1) (A1) (A1)
                 (A1) (A1) (A1) (A1) (A2) (A2) (A2) (A2) (A2) (A2)
                 (A2) (A2) (A2) (A2) (A2) (B1) (B1) (B1) (B1) (B1)
                 (B1) (B1) (B1) (B1) (B1) (B1) (B1) (B1) (B1) (B1)
                 (B2) (B2) (B2) (B2) (B2) (B2) (B2) (B2) (B2) (B2)
                 (B2) (B2) (B2) (B2) (B2) (B2) (B2) (B2) (B2)
 Keep R1 ints in memory in symmetry-blocked form, NReq=7306801.
 Requested convergence on RMS density matrix=1.00D-08 within 128 cycles.
 Requested convergence on MAX density matrix=1.00D-06.
 Requested convergence on             energy=1.00D-06.
 No special actions if energy rises.
 SCF Done:  E(RM062X) =  -119.068198373     A.U. after    8 cycles
            NFock=  8  Conv=0.25D-08     -V/T= 2.0087
 Calling FoFJK, ICntrl=      2127 FMM=F ISym2X=1 I1Cent= 0 IOpClX= 0 NMat=1 NMatS=1 NMatT=0.
 ***** Axes restored to original set *****
 -------------------------------------------------------------------
 Center     Atomic                   Forces (Hartrees/Bohr)
 Number     Number              X              Y              Z
 -------------------------------------------------------------------
      1        6          -0.000389851    0.000420292    0.000000000
      2        6           0.000000000   -0.000841028    0.000000000
      3        6           0.000389851    0.000420292    0.000000000
      4        1           0.000060542    0.000112460   -0.000313810
      5        1           0.000060542    0.000112460    0.000313810
      6        1          -0.000166022   -0.000205240    0.000000000
      7        1           0.000000000   -0.000019459   -0.000286383
      8        1           0.000000000   -0.000019459    0.000286383
      9        1          -0.000060542    0.000112460   -0.000313810
     10        1           0.000166022   -0.000205240    0.000000000
     11        1          -0.000060542    0.000112460    0.000313810
 -------------------------------------------------------------------
 Cartesian Forces:  Max     0.000841028 RMS     0.000253933

 GradGradGradGradGradGradGradGradGradGradGradGradGradGradGradGradGradGrad
 Berny optimization.
 Using GEDIIS/GDIIS optimizer.
 FormGI is forming the generalized inverse of G from B-inverse, IUseBI=4.
 Internal  Forces:  Max     0.000606353 RMS     0.000186484
 Search for a local minimum.
 Step number   3 out of a maximum of   56
 All quantities printed in internal units (Hartrees-Bohrs-Radians)
 Mixed Optimization -- En-DIIS/RFO-DIIS
 Update second derivatives using D2CorX and points    1    2    3
 DE= -1.28D-04 DEPred=-1.15D-04 R= 1.11D+00
 TightC=F SS=  1.41D+00  RLast= 4.09D-02 DXNew= 7.6189D-01 1.2258D-01
 Trust test= 1.11D+00 RLast= 4.09D-02 DXMaxT set to 4.53D-01
 ITU=  1  1  0
 Use linear search instead of GDIIS.
     Eigenvalues ---    0.00369   0.00369   0.03572   0.04353   0.05446
     Eigenvalues ---    0.05446   0.05571   0.05603   0.08262   0.12150
     Eigenvalues ---    0.13607   0.16000   0.16000   0.16000   0.16000
     Eigenvalues ---    0.16501   0.22164   0.29424   0.30792   0.34791
     Eigenvalues ---    0.34812   0.34812   0.34812   0.34812   0.34812
     Eigenvalues ---    0.35014   0.36954
 RFO step:  Lambda=-4.55348829D-06 EMin= 3.69121377D-03
 Quartic linear search produced a step of  0.11915.
 Iteration  1 RMS(Cart)=  0.00107191 RMS(Int)=  0.00000197
 Iteration  2 RMS(Cart)=  0.00000193 RMS(Int)=  0.00000144
 Iteration  3 RMS(Cart)=  0.00000000 RMS(Int)=  0.00000144
 ClnCor:  largest displacement from symmetrization is 2.23D-11 for atom     5.
 Variable       Old X    -DE/DX   Delta X   Delta X   Delta X     New X
                                 (Linear)    (Quad)   (Total)
    R1        2.88525  -0.00061  -0.00185  -0.00067  -0.00252   2.88273
    R2        2.08177  -0.00032   0.00035  -0.00114  -0.00079   2.08098
    R3        2.08177  -0.00032   0.00035  -0.00114  -0.00079   2.08098
    R4        2.07824  -0.00025   0.00002  -0.00067  -0.00064   2.07760
    R5        2.88525  -0.00061  -0.00185  -0.00067  -0.00252   2.88273
    R6        2.08313  -0.00024   0.00034  -0.00087  -0.00053   2.08260
    R7        2.08313  -0.00024   0.00034  -0.00087  -0.00053   2.08260
    R8        2.08177  -0.00032   0.00035  -0.00114  -0.00079   2.08098
    R9        2.07824  -0.00025   0.00002  -0.00067  -0.00064   2.07760
   R10        2.08177  -0.00032   0.00035  -0.00114  -0.00079   2.08098
    A1        1.93330   0.00011   0.00091   0.00005   0.00095   1.93426
    A2        1.93330   0.00011   0.00091   0.00005   0.00095   1.93426
    A3        1.94988   0.00007  -0.00006   0.00105   0.00099   1.95086
    A4        1.87770  -0.00014  -0.00087  -0.00075  -0.00162   1.87608
    A5        1.88353  -0.00008  -0.00049  -0.00024  -0.00073   1.88280
    A6        1.88353  -0.00008  -0.00049  -0.00024  -0.00073   1.88280
    A7        1.95693   0.00021   0.00013   0.00189   0.00202   1.95895
    A8        1.91198  -0.00004   0.00035  -0.00025   0.00009   1.91207
    A9        1.91198  -0.00004   0.00035  -0.00025   0.00009   1.91207
   A10        1.91198  -0.00004   0.00035  -0.00025   0.00009   1.91207
   A11        1.91198  -0.00004   0.00035  -0.00025   0.00009   1.91207
   A12        1.85628  -0.00005  -0.00162  -0.00104  -0.00265   1.85363
   A13        1.93330   0.00011   0.00091   0.00005   0.00095   1.93426
   A14        1.94988   0.00007  -0.00006   0.00105   0.00099   1.95086
   A15        1.93330   0.00011   0.00091   0.00005   0.00095   1.93426
   A16        1.88353  -0.00008  -0.00049  -0.00024  -0.00073   1.88280
   A17        1.87770  -0.00014  -0.00087  -0.00075  -0.00162   1.87608
   A18        1.88353  -0.00008  -0.00049  -0.00024  -0.00073   1.88280
    D1       -1.04110   0.00002  -0.00004   0.00044   0.00039  -1.04071
    D2        1.08551   0.00007   0.00073   0.00121   0.00194   1.08745
    D3        3.11547  -0.00004  -0.00082  -0.00033  -0.00115   3.11432
    D4        1.04110  -0.00002   0.00004  -0.00044  -0.00039   1.04071
    D5       -3.11547   0.00004   0.00082   0.00033   0.00115  -3.11432
    D6       -1.08551  -0.00007  -0.00073  -0.00121  -0.00194  -1.08745
    D7        3.14159   0.00000   0.00000   0.00000   0.00000   3.14159
    D8       -1.01498   0.00006   0.00077   0.00077   0.00154  -1.01344
    D9        1.01498  -0.00006  -0.00077  -0.00077  -0.00154   1.01344
   D10        1.04110  -0.00002   0.00004  -0.00044  -0.00039   1.04071
   D11        3.14159   0.00000   0.00000   0.00000   0.00000   3.14159
   D12       -1.04110   0.00002  -0.00004   0.00044   0.00039  -1.04071
   D13       -1.08551  -0.00007  -0.00073  -0.00121  -0.00194  -1.08745
   D14        1.01498  -0.00006  -0.00077  -0.00077  -0.00154   1.01344
   D15        3.11547  -0.00004  -0.00082  -0.00033  -0.00115   3.11432
   D16       -3.11547   0.00004   0.00082   0.00033   0.00115  -3.11432
   D17       -1.01498   0.00006   0.00077   0.00077   0.00154  -1.01344
   D18        1.08551   0.00007   0.00073   0.00121   0.00194   1.08745
         Item               Value     Threshold  Converged?
 Maximum Force            0.000606     0.000450     NO 
 RMS     Force            0.000186     0.000300     YES
 Maximum Displacement     0.002795     0.001800     NO 
 RMS     Displacement     0.001072     0.001200     YES
 Predicted change in Energy=-3.803542D-06
 GradGradGradGradGradGradGradGradGradGradGradGradGradGradGradGradGradGrad

                          Input orientation:                          
 ---------------------------------------------------------------------
 Center     Atomic      Atomic             Coordinates (Angstroms)
 Number     Number       Type             X           Y           Z
 ---------------------------------------------------------------------
      1          6           0        1.266458   -0.268604    0.000000
      2          6           0        0.000000    0.581783    0.000000
      3          6           0       -1.266458   -0.268604    0.000000
      4          1           0        1.301372   -0.918886    0.888016
      5          1           0        1.301372   -0.918886   -0.888016
      6          1           0        2.174210    0.351640    0.000000
      7          1           0        0.000000    1.243444    0.881331
      8          1           0        0.000000    1.243444   -0.881331
      9          1           0       -1.301372   -0.918886    0.888016
     10          1           0       -2.174210    0.351640    0.000000
     11          1           0       -1.301372   -0.918886   -0.888016
 ---------------------------------------------------------------------
                    Distance matrix (angstroms):
                    1          2          3          4          5
     1  C    0.000000
     2  C    1.525475   0.000000
     3  C    2.532916   1.525475   0.000000
     4  H    1.101208   2.175810   2.793777   0.000000
     5  H    1.101208   2.175810   2.793777   1.776032   0.000000
     6  H    1.099416   2.186357   3.496126   1.778947   1.778947
     7  H    2.160312   1.102062   2.160312   2.523744   3.082179
     8  H    2.160312   1.102062   2.160312   3.082179   2.523744
     9  H    2.793777   2.175810   1.101208   2.602745   3.150963
    10  H    3.496126   2.186357   1.099416   3.805586   3.805586
    11  H    2.793777   2.175810   1.101208   3.150963   2.602745
                    6          7          8          9         10
     6  H    0.000000
     7  H    2.509831   0.000000
     8  H    2.509831   1.762663   0.000000
     9  H    3.805586   2.523744   3.082179   0.000000
    10  H    4.348420   2.509831   2.509831   1.778947   0.000000
    11  H    3.805586   3.082179   2.523744   1.776032   1.778947
                   11
    11  H    0.000000
 Stoichiometry    C3H8
 Framework group  C2V[C2(C),SGV(C2H2),SGV'(H2),X(H4)]
 Deg. of freedom     9
 Full point group                 C2V     NOp   4
 Largest Abelian subgroup         C2V     NOp   4
 Largest concise Abelian subgroup C2V     NOp   4
                         Standard orientation:                         
 ---------------------------------------------------------------------
 Center     Atomic      Atomic             Coordinates (Angstroms)
 Number     Number       Type             X           Y           Z
 ---------------------------------------------------------------------
      1          6           0        0.000000    1.266458   -0.260222
      2          6           0        0.000000    0.000000    0.590164
      3          6           0        0.000000   -1.266458   -0.260222
      4          1           0        0.888016    1.301372   -0.910504
      5          1           0       -0.888016    1.301372   -0.910504
      6          1           0        0.000000    2.174210    0.360021
      7          1           0        0.881331    0.000000    1.251826
      8          1           0       -0.881331    0.000000    1.251826
      9          1           0        0.888016   -1.301372   -0.910504
     10          1           0        0.000000   -2.174210    0.360021
     11          1           0       -0.888016   -1.301372   -0.910504
 ---------------------------------------------------------------------
 Rotational constants (GHZ):     29.2002565      8.4803313      7.4968295
 Standard basis: CC-pVDZ (5D, 7F)
 There are    32 symmetry adapted cartesian basis functions of A1  symmetry.
 There are    12 symmetry adapted cartesian basis functions of A2  symmetry.
 There are    17 symmetry adapted cartesian basis functions of B1  symmetry.
 There are    24 symmetry adapted cartesian basis functions of B2  symmetry.
 There are    30 symmetry adapted basis functions of A1  symmetry.
 There are    12 symmetry adapted basis functions of A2  symmetry.
 There are    17 symmetry adapted basis functions of B1  symmetry.
 There are    23 symmetry adapted basis functions of B2  symmetry.
    82 basis functions,   155 primitive gaussians,    85 cartesian basis functions
    13 alpha electrons       13 beta electrons
       nuclear repulsion energy        82.4262696489 Hartrees.
 NAtoms=   11 NActive=   11 NUniq=    5 SFac= 4.00D+00 NAtFMM=   60 NAOKFM=F Big=F
 Integral buffers will be    131072 words long.
 Raffenetti 2 integral format.
 Two-electron integral symmetry is turned on.
 One-electron integrals computed using PRISM.
 NBasis=    82 RedAO= T EigKep=  7.95D-03  NBF=    30    12    17    23
 NBsUse=    82 1.00D-06 EigRej= -1.00D+00 NBFU=    30    12    17    23
 Initial guess from the checkpoint file:  "/fs/home/jms875/Documents/perovskites/gaussian/propane.chk"
 B after Tr=     0.000000    0.000000    0.000000
         Rot=    1.000000    0.000000    0.000000    0.000000 Ang=   0.00 deg.
 Initial guess orbital symmetries:
       Occupied  (A1) (B2) (A1) (A1) (B2) (A1) (B1) (A1) (B2) (A2)
                 (B2) (A1) (B1)
       Virtual   (A1) (A1) (A1) (A1) (A1) (A1) (A1) (A1) (A1) (A1)
                 (A1) (A1) (A1) (A1) (A1) (A1) (A1) (A1) (A1) (A1)
                 (A1) (A1) (A1) (A1) (A2) (A2) (A2) (A2) (A2) (A2)
                 (A2) (A2) (A2) (A2) (A2) (B1) (B1) (B1) (B1) (B1)
                 (B1) (B1) (B1) (B1) (B1) (B1) (B1) (B1) (B1) (B1)
                 (B2) (B2) (B2) (B2) (B2) (B2) (B2) (B2) (B2) (B2)
                 (B2) (B2) (B2) (B2) (B2) (B2) (B2) (B2) (B2)
 Keep R1 ints in memory in symmetry-blocked form, NReq=7306801.
 Requested convergence on RMS density matrix=1.00D-08 within 128 cycles.
 Requested convergence on MAX density matrix=1.00D-06.
 Requested convergence on             energy=1.00D-06.
 No special actions if energy rises.
 SCF Done:  E(RM062X) =  -119.068202074     A.U. after    7 cycles
            NFock=  7  Conv=0.46D-08     -V/T= 2.0087
 Calling FoFJK, ICntrl=      2127 FMM=F ISym2X=1 I1Cent= 0 IOpClX= 0 NMat=1 NMatS=1 NMatT=0.
 ***** Axes restored to original set *****
 -------------------------------------------------------------------
 Center     Atomic                   Forces (Hartrees/Bohr)
 Number     Number              X              Y              Z
 -------------------------------------------------------------------
      1        6           0.000031414   -0.000032927    0.000000000
      2        6           0.000000000    0.000053261    0.000000000
      3        6          -0.000031414   -0.000032927    0.000000000
      4        1           0.000003000   -0.000003609   -0.000002266
      5        1           0.000003000   -0.000003609    0.000002266
      6        1          -0.000034211    0.000008264    0.000000000
      7        1           0.000000000    0.000005251    0.000001024
      8        1           0.000000000    0.000005251   -0.000001024
      9        1          -0.000003000   -0.000003609   -0.000002266
     10        1           0.000034211    0.000008264    0.000000000
     11        1          -0.000003000   -0.000003609    0.000002266
 -------------------------------------------------------------------
 Cartesian Forces:  Max     0.000053261 RMS     0.000017076

 GradGradGradGradGradGradGradGradGradGradGradGradGradGradGradGradGradGrad
 Berny optimization.
 Using GEDIIS/GDIIS optimizer.
 FormGI is forming the generalized inverse of G from B-inverse, IUseBI=4.
 Internal  Forces:  Max     0.000041262 RMS     0.000012320
 Search for a local minimum.
 Step number   4 out of a maximum of   56
 All quantities printed in internal units (Hartrees-Bohrs-Radians)
 Mixed Optimization -- En-DIIS/RFO-DIIS
 Swapping is turned off.
 Update second derivatives using D2CorX and points    1    2    3    4
 DE= -3.70D-06 DEPred=-3.80D-06 R= 9.73D-01
 TightC=F SS=  1.41D+00  RLast= 8.44D-03 DXNew= 7.6189D-01 2.5314D-02
 Trust test= 9.73D-01 RLast= 8.44D-03 DXMaxT set to 4.53D-01
 ITU=  1  1  1  0
     Eigenvalues ---    0.00369   0.00369   0.03556   0.04350   0.05435
     Eigenvalues ---    0.05435   0.05563   0.05628   0.08287   0.12168
     Eigenvalues ---    0.13580   0.16000   0.16000   0.16000   0.16000
     Eigenvalues ---    0.16675   0.22389   0.29424   0.31358   0.34762
     Eigenvalues ---    0.34812   0.34812   0.34812   0.34812   0.34812
     Eigenvalues ---    0.35088   0.35835
 En-DIIS/RFO-DIIS IScMMF=        0 using points:     4    3
 RFO step:  Lambda=-1.61671656D-08.
 DidBck=F Rises=F RFO-DIIS coefs:    0.98159    0.01841
 Iteration  1 RMS(Cart)=  0.00012233 RMS(Int)=  0.00000002
 Iteration  2 RMS(Cart)=  0.00000002 RMS(Int)=  0.00000001
 ClnCor:  largest displacement from symmetrization is 8.75D-12 for atom     5.
 Variable       Old X    -DE/DX   Delta X   Delta X   Delta X     New X
                                 (Linear)    (Quad)   (Total)
    R1        2.88273   0.00002   0.00005   0.00004   0.00009   2.88282
    R2        2.08098   0.00000   0.00001  -0.00002   0.00000   2.08098
    R3        2.08098   0.00000   0.00001  -0.00002   0.00000   2.08098
    R4        2.07760  -0.00002   0.00001  -0.00008  -0.00007   2.07753
    R5        2.88273   0.00002   0.00005   0.00004   0.00009   2.88282
    R6        2.08260   0.00000   0.00001   0.00000   0.00001   2.08260
    R7        2.08260   0.00000   0.00001   0.00000   0.00001   2.08260
    R8        2.08098   0.00000   0.00001  -0.00002   0.00000   2.08098
    R9        2.07760  -0.00002   0.00001  -0.00008  -0.00007   2.07753
   R10        2.08098   0.00000   0.00001  -0.00002   0.00000   2.08098
    A1        1.93426   0.00001  -0.00002   0.00010   0.00008   1.93434
    A2        1.93426   0.00001  -0.00002   0.00010   0.00008   1.93434
    A3        1.95086  -0.00004  -0.00002  -0.00025  -0.00027   1.95059
    A4        1.87608  -0.00001   0.00003  -0.00002   0.00001   1.87610
    A5        1.88280   0.00001   0.00001   0.00004   0.00005   1.88285
    A6        1.88280   0.00001   0.00001   0.00004   0.00005   1.88285
    A7        1.95895  -0.00001  -0.00004   0.00002  -0.00002   1.95893
    A8        1.91207   0.00000   0.00000   0.00001   0.00001   1.91208
    A9        1.91207   0.00000   0.00000   0.00001   0.00001   1.91208
   A10        1.91207   0.00000   0.00000   0.00001   0.00001   1.91208
   A11        1.91207   0.00000   0.00000   0.00001   0.00001   1.91208
   A12        1.85363   0.00000   0.00005  -0.00007  -0.00003   1.85360
   A13        1.93426   0.00001  -0.00002   0.00010   0.00008   1.93434
   A14        1.95086  -0.00004  -0.00002  -0.00025  -0.00027   1.95059
   A15        1.93426   0.00001  -0.00002   0.00010   0.00008   1.93434
   A16        1.88280   0.00001   0.00001   0.00004   0.00005   1.88285
   A17        1.87608  -0.00001   0.00003  -0.00002   0.00001   1.87610
   A18        1.88280   0.00001   0.00001   0.00004   0.00005   1.88285
    D1       -1.04071   0.00000  -0.00001  -0.00005  -0.00006  -1.04077
    D2        1.08745   0.00000  -0.00004  -0.00002  -0.00005   1.08739
    D3        3.11432   0.00000   0.00002  -0.00009  -0.00007   3.11425
    D4        1.04071   0.00000   0.00001   0.00005   0.00006   1.04077
    D5       -3.11432   0.00000  -0.00002   0.00009   0.00007  -3.11425
    D6       -1.08745   0.00000   0.00004   0.00002   0.00005  -1.08739
    D7        3.14159   0.00000   0.00000   0.00000   0.00000   3.14159
    D8       -1.01344   0.00000  -0.00003   0.00004   0.00001  -1.01343
    D9        1.01344   0.00000   0.00003  -0.00004  -0.00001   1.01343
   D10        1.04071   0.00000   0.00001   0.00005   0.00006   1.04077
   D11        3.14159   0.00000   0.00000   0.00000   0.00000   3.14159
   D12       -1.04071   0.00000  -0.00001  -0.00005  -0.00006  -1.04077
   D13       -1.08745   0.00000   0.00004   0.00002   0.00005  -1.08739
   D14        1.01344   0.00000   0.00003  -0.00004  -0.00001   1.01343
   D15        3.11432   0.00000   0.00002  -0.00009  -0.00007   3.11425
   D16       -3.11432   0.00000  -0.00002   0.00009   0.00007  -3.11425
   D17       -1.01344   0.00000  -0.00003   0.00004   0.00001  -1.01343
   D18        1.08745   0.00000  -0.00004  -0.00002  -0.00005   1.08739
         Item               Value     Threshold  Converged?
 Maximum Force            0.000041     0.000450     YES
 RMS     Force            0.000012     0.000300     YES
 Maximum Displacement     0.000307     0.001800     YES
 RMS     Displacement     0.000122     0.001200     YES
 Predicted change in Energy=-1.941192D-08
 Optimization completed.
    -- Stationary point found.
                           ----------------------------
                           !   Optimized Parameters   !
                           ! (Angstroms and Degrees)  !
 --------------------------                            --------------------------
 ! Name  Definition              Value          Derivative Info.                !
 --------------------------------------------------------------------------------
 ! R1    R(1,2)                  1.5255         -DE/DX =    0.0                 !
 ! R2    R(1,4)                  1.1012         -DE/DX =    0.0                 !
 ! R3    R(1,5)                  1.1012         -DE/DX =    0.0                 !
 ! R4    R(1,6)                  1.0994         -DE/DX =    0.0                 !
 ! R5    R(2,3)                  1.5255         -DE/DX =    0.0                 !
 ! R6    R(2,7)                  1.1021         -DE/DX =    0.0                 !
 ! R7    R(2,8)                  1.1021         -DE/DX =    0.0                 !
 ! R8    R(3,9)                  1.1012         -DE/DX =    0.0                 !
 ! R9    R(3,10)                 1.0994         -DE/DX =    0.0                 !
 ! R10   R(3,11)                 1.1012         -DE/DX =    0.0                 !
 ! A1    A(2,1,4)              110.8247         -DE/DX =    0.0                 !
 ! A2    A(2,1,5)              110.8247         -DE/DX =    0.0                 !
 ! A3    A(2,1,6)              111.7761         -DE/DX =    0.0                 !
 ! A4    A(4,1,5)              107.4917         -DE/DX =    0.0                 !
 ! A5    A(4,1,6)              107.8765         -DE/DX =    0.0                 !
 ! A6    A(5,1,6)              107.8765         -DE/DX =    0.0                 !
 ! A7    A(1,2,3)              112.2398         -DE/DX =    0.0                 !
 ! A8    A(1,2,7)              109.5536         -DE/DX =    0.0                 !
 ! A9    A(1,2,8)              109.5536         -DE/DX =    0.0                 !
 ! A10   A(3,2,7)              109.5536         -DE/DX =    0.0                 !
 ! A11   A(3,2,8)              109.5536         -DE/DX =    0.0                 !
 ! A12   A(7,2,8)              106.2051         -DE/DX =    0.0                 !
 ! A13   A(2,3,9)              110.8247         -DE/DX =    0.0                 !
 ! A14   A(2,3,10)             111.7761         -DE/DX =    0.0                 !
 ! A15   A(2,3,11)             110.8247         -DE/DX =    0.0                 !
 ! A16   A(9,3,10)             107.8765         -DE/DX =    0.0                 !
 ! A17   A(9,3,11)             107.4917         -DE/DX =    0.0                 !
 ! A18   A(10,3,11)            107.8765         -DE/DX =    0.0                 !
 ! D1    D(4,1,2,3)            -59.6284         -DE/DX =    0.0                 !
 ! D2    D(4,1,2,7)             62.306          -DE/DX =    0.0                 !
 ! D3    D(4,1,2,8)            178.4372         -DE/DX =    0.0                 !
 ! D4    D(5,1,2,3)             59.6284         -DE/DX =    0.0                 !
 ! D5    D(5,1,2,7)           -178.4372         -DE/DX =    0.0                 !
 ! D6    D(5,1,2,8)            -62.306          -DE/DX =    0.0                 !
 ! D7    D(6,1,2,3)            180.0            -DE/DX =    0.0                 !
 ! D8    D(6,1,2,7)            -58.0656         -DE/DX =    0.0                 !
 ! D9    D(6,1,2,8)             58.0656         -DE/DX =    0.0                 !
 ! D10   D(1,2,3,9)             59.6284         -DE/DX =    0.0                 !
 ! D11   D(1,2,3,10)           180.0            -DE/DX =    0.0                 !
 ! D12   D(1,2,3,11)           -59.6284         -DE/DX =    0.0                 !
 ! D13   D(7,2,3,9)            -62.306          -DE/DX =    0.0                 !
 ! D14   D(7,2,3,10)            58.0656         -DE/DX =    0.0                 !
 ! D15   D(7,2,3,11)           178.4372         -DE/DX =    0.0                 !
 ! D16   D(8,2,3,9)           -178.4372         -DE/DX =    0.0                 !
 ! D17   D(8,2,3,10)           -58.0656         -DE/DX =    0.0                 !
 ! D18   D(8,2,3,11)            62.306          -DE/DX =    0.0                 !
 --------------------------------------------------------------------------------
 GradGradGradGradGradGradGradGradGradGradGradGradGradGradGradGradGradGrad

                          Input orientation:                          
 ---------------------------------------------------------------------
 Center     Atomic      Atomic             Coordinates (Angstroms)
 Number     Number       Type             X           Y           Z
 ---------------------------------------------------------------------
      1          6           0        1.266458   -0.268604    0.000000
      2          6           0        0.000000    0.581783    0.000000
      3          6           0       -1.266458   -0.268604    0.000000
      4          1           0        1.301372   -0.918886    0.888016
      5          1           0        1.301372   -0.918886   -0.888016
      6          1           0        2.174210    0.351640    0.000000
      7          1           0        0.000000    1.243444    0.881331
      8          1           0        0.000000    1.243444   -0.881331
      9          1           0       -1.301372   -0.918886    0.888016
     10          1           0       -2.174210    0.351640    0.000000
     11          1           0       -1.301372   -0.918886   -0.888016
 ---------------------------------------------------------------------
                    Distance matrix (angstroms):
                    1          2          3          4          5
     1  C    0.000000
     2  C    1.525475   0.000000
     3  C    2.532916   1.525475   0.000000
     4  H    1.101208   2.175810   2.793777   0.000000
     5  H    1.101208   2.175810   2.793777   1.776032   0.000000
     6  H    1.099416   2.186357   3.496126   1.778947   1.778947
     7  H    2.160312   1.102062   2.160312   2.523744   3.082179
     8  H    2.160312   1.102062   2.160312   3.082179   2.523744
     9  H    2.793777   2.175810   1.101208   2.602745   3.150963
    10  H    3.496126   2.186357   1.099416   3.805586   3.805586
    11  H    2.793777   2.175810   1.101208   3.150963   2.602745
                    6          7          8          9         10
     6  H    0.000000
     7  H    2.509831   0.000000
     8  H    2.509831   1.762663   0.000000
     9  H    3.805586   2.523744   3.082179   0.000000
    10  H    4.348420   2.509831   2.509831   1.778947   0.000000
    11  H    3.805586   3.082179   2.523744   1.776032   1.778947
                   11
    11  H    0.000000
 Stoichiometry    C3H8
 Framework group  C2V[C2(C),SGV(C2H2),SGV'(H2),X(H4)]
 Deg. of freedom     9
 Full point group                 C2V     NOp   4
 Largest Abelian subgroup         C2V     NOp   4
 Largest concise Abelian subgroup C2V     NOp   4
                         Standard orientation:                         
 ---------------------------------------------------------------------
 Center     Atomic      Atomic             Coordinates (Angstroms)
 Number     Number       Type             X           Y           Z
 ---------------------------------------------------------------------
      1          6           0        0.000000    1.266458   -0.260222
      2          6           0        0.000000    0.000000    0.590164
      3          6           0        0.000000   -1.266458   -0.260222
      4          1           0        0.888016    1.301372   -0.910504
      5          1           0       -0.888016    1.301372   -0.910504
      6          1           0        0.000000    2.174210    0.360021
      7          1           0        0.881331    0.000000    1.251826
      8          1           0       -0.881331    0.000000    1.251826
      9          1           0        0.888016   -1.301372   -0.910504
     10          1           0        0.000000   -2.174210    0.360021
     11          1           0       -0.888016   -1.301372   -0.910504
 ---------------------------------------------------------------------
 Rotational constants (GHZ):     29.2002565      8.4803313      7.4968295

 **********************************************************************

            Population analysis using the SCF density.

 **********************************************************************

 Orbital symmetries:
       Occupied  (A1) (B2) (A1) (A1) (B2) (A1) (B1) (A1) (B2) (A2)
                 (B2) (A1) (B1)
       Virtual   (A1) (B2) (B1) (A1) (A1) (B1) (B2) (A2) (A1) (B2)
                 (A1) (B1) (B2) (A2) (A1) (B2) (B1) (A1) (B2) (B2)
                 (B1) (B1) (A2) (A1) (A1) (A1) (B2) (A1) (A2) (A1)
                 (B2) (A2) (B1) (B2) (A1) (B1) (A1) (A2) (A1) (B2)
                 (B1) (A2) (B2) (B1) (A1) (B2) (A2) (B1) (A1) (B1)
                 (B2) (A1) (B2) (A2) (A1) (B2) (A1) (B1) (A1) (B2)
                 (A2) (A1) (B2) (B1) (B2) (A1) (A1) (A2) (B1)
 The electronic state is 1-A1.
 Alpha  occ. eigenvalues --  -10.53999 -10.53383 -10.53380  -0.87450  -0.76462
 Alpha  occ. eigenvalues --   -0.66021  -0.52165  -0.49957  -0.45656  -0.43729
 Alpha  occ. eigenvalues --   -0.39117  -0.39063  -0.38087
 Alpha virt. eigenvalues --    0.10283   0.15067   0.15101   0.15222   0.17880
 Alpha virt. eigenvalues --    0.19749   0.20553   0.21343   0.25432   0.29991
 Alpha virt. eigenvalues --    0.43961   0.46248   0.47889   0.48198   0.49986
 Alpha virt. eigenvalues --    0.65145   0.65952   0.65990   0.68600   0.71455
 Alpha virt. eigenvalues --    0.71763   0.72063   0.72185   0.73015   0.73166
 Alpha virt. eigenvalues --    0.77594   0.79766   0.95559   0.95815   1.01285
 Alpha virt. eigenvalues --    1.17817   1.27209   1.27501   1.31538   1.39642
 Alpha virt. eigenvalues --    1.47630   1.47859   1.48172   1.62534   1.63888
 Alpha virt. eigenvalues --    1.65807   1.68316   1.70534   1.71057   1.72861
 Alpha virt. eigenvalues --    1.73697   1.73829   1.74116   1.75443   1.78938
 Alpha virt. eigenvalues --    1.87523   1.87654   2.02884   2.04533   2.05950
 Alpha virt. eigenvalues --    2.07349   2.19997   2.22293   2.29127   2.29913
 Alpha virt. eigenvalues --    2.30726   2.41745   2.44270   2.44284   2.49518
 Alpha virt. eigenvalues --    2.57684   2.65173   2.65725   2.70732
          Condensed to atoms (all electrons):
               1          2          3          4          5          6
     1  C    4.574674   0.440855  -0.056037   0.397047   0.397047   0.389811
     2  C    0.440855   4.618982   0.440855  -0.028828  -0.028828  -0.016455
     3  C   -0.056037   0.440855   4.574674  -0.004690  -0.004690   0.006091
     4  H    0.397047  -0.028828  -0.004690   0.649904  -0.029241  -0.026595
     5  H    0.397047  -0.028828  -0.004690  -0.029241   0.649904  -0.026595
     6  H    0.389811  -0.016455   0.006091  -0.026595  -0.026595   0.645518
     7  H   -0.027597   0.386114  -0.027597  -0.008254   0.008344  -0.004767
     8  H   -0.027597   0.386114  -0.027597   0.008344  -0.008254  -0.004767
     9  H   -0.004690  -0.028828   0.397047   0.005980  -0.001454   0.000095
    10  H    0.006091  -0.016455   0.389811   0.000095   0.000095  -0.000399
    11  H   -0.004690  -0.028828   0.397047  -0.001454   0.005980   0.000095
               7          8          9         10         11
     1  C   -0.027597  -0.027597  -0.004690   0.006091  -0.004690
     2  C    0.386114   0.386114  -0.028828  -0.016455  -0.028828
     3  C   -0.027597  -0.027597   0.397047   0.389811   0.397047
     4  H   -0.008254   0.008344   0.005980   0.000095  -0.001454
     5  H    0.008344  -0.008254  -0.001454   0.000095   0.005980
     6  H   -0.004767  -0.004767   0.000095  -0.000399   0.000095
     7  H    0.682553  -0.038030  -0.008254  -0.004767   0.008344
     8  H   -0.038030   0.682553   0.008344  -0.004767  -0.008254
     9  H   -0.008254   0.008344   0.649904  -0.026595  -0.029241
    10  H   -0.004767  -0.004767  -0.026595   0.645518  -0.026595
    11  H    0.008344  -0.008254  -0.029241  -0.026595   0.649904
 Mulliken charges:
               1
     1  C   -0.084913
     2  C   -0.124698
     3  C   -0.084913
     4  H    0.037692
     5  H    0.037692
     6  H    0.037968
     7  H    0.033910
     8  H    0.033910
     9  H    0.037692
    10  H    0.037968
    11  H    0.037692
 Sum of Mulliken charges =   0.00000
 Mulliken charges with hydrogens summed into heavy atoms:
               1
     1  C    0.028439
     2  C   -0.056877
     3  C    0.028439
 Electronic spatial extent (au):  <R**2>=            226.2729
 Charge=              0.0000 electrons
 Dipole moment (field-independent basis, Debye):
    X=              0.0000    Y=              0.0000    Z=              0.0653  Tot=              0.0653
 Quadrupole moment (field-independent basis, Debye-Ang):
   XX=            -21.3546   YY=            -22.0434   ZZ=            -21.7702
   XY=              0.0000   XZ=              0.0000   YZ=              0.0000
 Traceless Quadrupole moment (field-independent basis, Debye-Ang):
   XX=              0.3681   YY=             -0.3206   ZZ=             -0.0475
   XY=              0.0000   XZ=              0.0000   YZ=              0.0000
 Octapole moment (field-independent basis, Debye-Ang**2):
  XXX=              0.0000  YYY=              0.0000  ZZZ=              0.2247  XYY=              0.0000
  XXY=              0.0000  XXZ=             -0.4282  XZZ=              0.0000  YZZ=              0.0000
  YYZ=              1.4124  XYZ=              0.0000
 Hexadecapole moment (field-independent basis, Debye-Ang**3):
 XXXX=            -43.4408 YYYY=           -199.9088 ZZZZ=            -70.9062 XXXY=              0.0000
 XXXZ=              0.0000 YYYX=              0.0000 YYYZ=              0.0000 ZZZX=              0.0000
 ZZZY=              0.0000 XXYY=            -41.4332 XXZZ=            -17.0781 YYZZ=            -44.9644
 XXYZ=              0.0000 YYXZ=              0.0000 ZZXY=              0.0000
 N-N= 8.242626964888D+01 E-N=-4.394712804657D+02  KE= 1.180437367882D+02
 Symmetry A1   KE= 7.315218899091D+01
 Symmetry A2   KE= 1.976846723164D+00
 Symmetry B1   KE= 3.761667116343D+00
 Symmetry B2   KE= 3.915303395782D+01
 1\1\GINC-SHERGAR\FOpt\RM062X\CC-pVDZ\C3H8\JMS875\03-Jun-2015\0\\#N M06
 2X/cc-pVDZ Opt\\run by gaussian.py\\0,1\C,1.266458051,-0.2686037297,0.
 \C,0.,0.5817827993,0.\C,-1.266458051,-0.2686037297,0.\H,1.3013723813,-
 0.9188857321,0.8880159499\H,1.3013723813,-0.9188857321,-0.8880159499\H
 ,2.1742102336,0.3516398101,0.\H,0.,1.2434439844,0.8813314065\H,0.,1.24
 34439844,-0.8813314065\H,-1.3013723813,-0.9188857321,0.8880159499\H,-2
 .1742102336,0.3516398101,0.\H,-1.3013723813,-0.9188857321,-0.888015949
 9\\Version=EM64L-G09RevD.01\State=1-A1\HF=-119.0682021\RMSD=4.618e-09\
 RMSF=1.708e-05\Dipole=0.,0.0256955,0.\Quadrupole=-0.2383772,-0.0353115
 ,0.2736887,0.,0.,0.\PG=C02V [C2(C1),SGV(C2H2),SGV'(H2),X(H4)]\\@


 Just remember, when you're over the hill, you begin to pick up speed.
 -- Charles Schulz
 Job cpu time:       0 days  0 hours  0 minutes 25.9 seconds.
 File lengths (MBytes):  RWF=      6 Int=      0 D2E=      0 Chk=      2 Scr=      1
 Normal termination of Gaussian 09 at Wed Jun  3 09:50:22 2015.
